Program Version,EnergyPlus, Version 23.2.0-7636e6b3e9, YMD=2025.01.17 16:51
1,5,Environment Title[],Latitude[deg],Longitude[deg],Time Zone[],Elevation[m]
2,8,Day of Simulation[],Month[],Day of Month[],DST Indicator[1=yes 0=no],Hour[],StartMinute[],EndMinute[],DayType
3,5,Cumulative Day of Simulation[],Month[],Day of Month[],DST Indicator[1=yes 0=no],DayType  ! When Daily Report Variables Requested
4,2,Cumulative Days of Simulation[],Month[]  ! When Monthly Report Variables Requested
5,1,Cumulative Days of Simulation[] ! When Run Period Report Variables Requested
6,1,Calendar Year of Simulation[] ! When Annual Report Variables Requested
7,1,Environment,Site Outdoor Air Drybulb Temperature [C] !Hourly
450,1,PLENUM-1,Zone Mean Radiant Temperature [C] !Hourly
451,1,SPACE1-1,Zone Mean Radiant Temperature [C] !Hourly
452,1,SPACE2-1,Zone Mean Radiant Temperature [C] !Hourly
453,1,SPACE3-1,Zone Mean Radiant Temperature [C] !Hourly
454,1,SPACE4-1,Zone Mean Radiant Temperature [C] !Hourly
455,1,SPACE5-1,Zone Mean Radiant Temperature [C] !Hourly
456,1,PLENUM-1,Zone Operative Temperature [C] !Hourly
457,1,SPACE1-1,Zone Operative Temperature [C] !Hourly
458,1,SPACE2-1,Zone Operative Temperature [C] !Hourly
459,1,SPACE3-1,Zone Operative Temperature [C] !Hourly
460,1,SPACE4-1,Zone Operative Temperature [C] !Hourly
461,1,SPACE5-1,Zone Operative Temperature [C] !Hourly
462,1,SPACE1-1,Zone Ventilation Standard Density Volume Flow Rate [m3/s] !Hourly
512,1,SPACE2-1,Zone Ventilation Standard Density Volume Flow Rate [m3/s] !Hourly
538,1,SPACE3-1,Zone Ventilation Standard Density Volume Flow Rate [m3/s] !Hourly
564,1,SPACE4-1,Zone Ventilation Standard Density Volume Flow Rate [m3/s] !Hourly
590,1,SPACE5-1,Zone Ventilation Standard Density Volume Flow Rate [m3/s] !Hourly
616,1,PLENUM-1,Zone Air Temperature [C] !Hourly
617,1,PLENUM-1,Zone Air Humidity Ratio [] !Hourly
618,1,PLENUM-1,Zone Air Relative Humidity [%] !Hourly
753,1,SPACE1-1,Zone Air Temperature [C] !Hourly
754,1,SPACE1-1,Zone Air Humidity Ratio [] !Hourly
755,1,SPACE1-1,Zone Air Relative Humidity [%] !Hourly
818,1,SPACE2-1,Zone Air Temperature [C] !Hourly
819,1,SPACE2-1,Zone Air Humidity Ratio [] !Hourly
820,1,SPACE2-1,Zone Air Relative Humidity [%] !Hourly
883,1,SPACE3-1,Zone Air Temperature [C] !Hourly
884,1,SPACE3-1,Zone Air Humidity Ratio [] !Hourly
885,1,SPACE3-1,Zone Air Relative Humidity [%] !Hourly
948,1,SPACE4-1,Zone Air Temperature [C] !Hourly
949,1,SPACE4-1,Zone Air Humidity Ratio [] !Hourly
950,1,SPACE4-1,Zone Air Relative Humidity [%] !Hourly
1013,1,SPACE5-1,Zone Air Temperature [C] !Hourly
1014,1,SPACE5-1,Zone Air Humidity Ratio [] !Hourly
1015,1,SPACE5-1,Zone Air Relative Humidity [%] !Hourly
1078,1,HOT WATER LOOP HOT WATER LOOP,Plant Supply Side Outlet Temperature [C] !Hourly
1226,1,PLENUM-1,Zone Thermal Comfort ASHRAE 55 Simple Model Summer or Winter Clothes Not Comfortable Time [hr] !Hourly
1227,1,SPACE1-1,Zone Thermal Comfort ASHRAE 55 Simple Model Summer or Winter Clothes Not Comfortable Time [hr] !Hourly
1228,1,SPACE2-1,Zone Thermal Comfort ASHRAE 55 Simple Model Summer or Winter Clothes Not Comfortable Time [hr] !Hourly
1229,1,SPACE3-1,Zone Thermal Comfort ASHRAE 55 Simple Model Summer or Winter Clothes Not Comfortable Time [hr] !Hourly
1230,1,SPACE4-1,Zone Thermal Comfort ASHRAE 55 Simple Model Summer or Winter Clothes Not Comfortable Time [hr] !Hourly
1231,1,SPACE5-1,Zone Thermal Comfort ASHRAE 55 Simple Model Summer or Winter Clothes Not Comfortable Time [hr] !Hourly
1232,1,PLENUM-1,Zone Heating Setpoint Not Met While Occupied Time [hr] !Hourly
1233,1,SPACE1-1,Zone Heating Setpoint Not Met While Occupied Time [hr] !Hourly
1234,1,SPACE2-1,Zone Heating Setpoint Not Met While Occupied Time [hr] !Hourly
1235,1,SPACE3-1,Zone Heating Setpoint Not Met While Occupied Time [hr] !Hourly
1236,1,SPACE4-1,Zone Heating Setpoint Not Met While Occupied Time [hr] !Hourly
1237,1,SPACE5-1,Zone Heating Setpoint Not Met While Occupied Time [hr] !Hourly
1238,1,SPACE1-1 BASEBOARD HEAT,Baseboard Total Heating Rate [W] !Hourly
1301,1,SPACE2-1 BASEBOARD HEAT,Baseboard Total Heating Rate [W] !Hourly
1304,1,SPACE3-1 BASEBOARD HEAT,Baseboard Total Heating Rate [W] !Hourly
1307,1,SPACE4-1 BASEBOARD HEAT,Baseboard Total Heating Rate [W] !Hourly
1310,1,SPACE5-1 BASEBOARD HEAT,Baseboard Total Heating Rate [W] !Hourly
1313,1,MAIN BOILER,Boiler Heating Rate [W] !Hourly
1339,1,MAIN BOILER,Boiler NaturalGas Rate [W] !Hourly
End of Data Dictionary
1,RUN PERIOD 1,  37.62,-122.40,  -8.00,   2.00
2,1, 1,14, 0, 1, 0.00,60.00,Tuesday
7,8.85
450,19.293714003742675
451,20.335811110374742
452,20.372471914901546
453,20.30028003458534
454,20.373267426978437
455,21.27987811318796
456,19.331008885283378
457,20.29778512745242
458,20.339095745593344
459,20.2606661486415
460,20.3395766265046
461,21.288376684606348
1226,0.0
1227,0.0
1228,0.0
1229,0.0
1230,0.0
1231,0.0
1232,0.0
1233,0.0
1234,0.0
1235,0.0
1236,0.0
1237,0.0
462,0.0
512,0.0
538,0.0
564,0.0
590,0.0
616,19.36830376682408
617,0.006393607669006443
618,46.37731398224314
753,20.259759144530108
754,0.008068414321632026
755,55.22919878476576
818,20.305719576285142
819,0.00835188463151102
820,56.98159397584806
883,20.22105226269766
884,0.008345438847256583
885,57.2371379210318
948,20.305885826030764
949,0.008333746511396083
950,56.85884653552591
1013,21.29687525602473
1014,0.007488647118287318
1015,48.133383453183754
1078,66.28217727746775
1238,0.0
1301,0.0
1304,0.0
1307,0.0
1310,0.0
1313,0.0
1339,0.0
2,1, 1,14, 0, 2, 0.00,60.00,Tuesday
7,8.487499999999999
450,18.886275514531487
451,20.101343963716694
452,20.12692100595447
453,20.067325977345597
454,20.13189965206012
455,21.121458433604086
456,18.925471781850952
457,20.05483902457778
458,20.08885186435151
459,20.018606490439865
460,20.09445185342379
461,21.12177884530036
1226,0.0
1227,0.0
1228,0.0
1229,0.0
1230,0.0
1231,0.0
1232,0.0
1233,0.0
1234,0.0
1235,0.0
1236,0.0
1237,0.0
462,0.0
512,0.0
538,0.0
564,0.0
590,0.0
616,18.96466804917041
617,0.006393607669006441
618,47.55923224740622
753,20.008334085438864
754,0.007996507656059186
755,55.60085723174444
818,20.050782722748558
819,0.008269637699949142
820,57.32412207657081
883,19.969887003534133
884,0.008262996419789958
885,57.56646952718339
948,20.057004054787463
949,0.008252185667265466
950,57.182700781051736
1013,21.122099256996627
1014,0.007438855589555288
1015,48.33255075152087
1078,66.28217727746775
1238,0.0
1301,0.0
1304,0.0
1307,0.0
1310,0.0
1313,0.0
1339,0.0
2,1, 1,14, 0, 3, 0.00,60.00,Tuesday
7,8.2125
450,18.47639594661268
451,19.955103824269784
452,19.97252039173796
453,19.924039718124334
454,19.970138807132393
455,21.01083361562317
456,18.51767650454499
457,19.92841224635022
458,19.952128045677103
459,19.89723793189749
460,19.949614635322373
461,21.02524294927698
1226,0.0
1227,0.0
1228,0.0
1229,0.0
1230,0.0
1231,0.0
1232,0.0
1233,0.0
1234,0.0
1235,0.0
1236,0.0
1237,0.0
462,0.0
512,0.0
538,0.0
564,0.0
590,0.0
616,18.558957062477297
617,0.006393607669006441
618,48.781369525849406
753,19.901720668430656
754,0.00795585648571669
755,55.68859851140691
818,19.931735699616247
819,0.008222606789873861
820,57.424437861499754
883,19.870436145670645
884,0.00821587003618618
885,57.59647455548726
948,19.92909046351236
949,0.008205576557860762
950,57.3164714147147
1013,21.039652282930792
1014,0.007411783504902009
1015,48.40331362214964
1078,66.28217727746775
1238,0.0
1301,0.0
1304,0.0
1307,0.0
1310,0.0
1313,0.0
1339,0.0
2,1, 1,14, 0, 4, 0.00,60.00,Tuesday
7,8.1125
450,18.09488800207845
451,19.847297322405982
452,19.85772759851919
453,19.820952372516675
454,19.854290799501193
455,20.91739142450199
456,18.136863654779482
457,19.827020999554684
458,19.84492521593209
459,19.79989726790884
460,19.840874130712123
461,20.938488682803772
1226,0.0
1227,0.0
1228,0.0
1229,0.0
1230,0.0
1231,0.0
1232,0.0
1233,0.0
1234,0.0
1235,0.0
1236,0.0
1237,0.0
462,0.0
512,0.0
538,0.0
564,0.0
590,0.0
616,18.178839307480512
617,0.0063936076690064405
618,49.9888283769807
753,19.806744676703385
754,0.007919223665059472
755,55.79678956606989
818,19.83212283334499
819,0.008180872049398854
820,57.52572302148829
883,19.778842163301007
884,0.008174040228959782
885,57.668631005074516
948,19.827457461923053
949,0.008164181419153394
950,57.42649620726175
1013,20.959585941105555
1014,0.0073860519511953285
1015,48.50475807017986
1078,66.28217727746775
1238,0.0
1301,0.0
1304,0.0
1307,0.0
1310,0.0
1313,0.0
1339,0.0
2,1, 1,14, 0, 5, 0.00,60.00,Tuesday
7,8.675
450,17.773032307756935
451,19.80284534253802
452,19.802903958591575
453,19.78298118568993
454,19.805421969311062
455,20.852565806698795
456,17.815001100159918
457,19.791532455631952
458,19.797767641657476
459,19.77183617263701
460,19.800501312182533
461,20.87847510221622
1226,0.0
1227,0.0
1228,0.0
1229,0.0
1230,0.0
1231,0.0
1232,0.0
1233,0.0
1234,0.0
1235,0.0
1236,0.0
1237,0.0
462,0.0
512,0.0
538,0.0
564,0.0
590,0.0
616,17.856969892562905
617,0.006393607669006441
618,51.02942577244314
753,19.780219568725883
754,0.007906799599112328
755,55.82252980257577
818,19.792631324723374
819,0.008166535732847209
820,57.588149004488564
883,19.76069115958408
884,0.008159675743024297
885,57.65454189964565
948,19.795580655053996
949,0.008149971652703505
950,57.462332129480934
1013,20.904384397733644
1014,0.0073776958064607325
1015,48.63314348273343
1078,66.28217727746775
1238,0.0
1301,0.0
1304,0.0
1307,0.0
1310,0.0
1313,0.0
1339,0.0
2,1, 1,14, 0, 6, 0.00,60.00,Tuesday
7,8.2125
450,17.52382890010104
451,19.722542746830253
452,19.72930343549308
453,19.711348587047617
454,19.73488714539236
455,20.79117413843982
456,17.56487529999753
457,19.696521468169053
458,19.7096187724638
459,19.68594587708316
460,19.715758174823666
461,20.790973384607334
1226,0.0
1227,0.0
1228,0.0
1229,0.0
1230,0.0
1231,0.0
1232,0.0
1233,0.0
1234,0.0
1235,0.0
1236,0.0
1237,0.0
462,0.0
512,0.0
538,0.0
564,0.0
590,0.0
616,17.605921699894026
617,0.0063936076690064405
618,51.84316227925933
753,19.67050018950785
754,0.00787771050429616
755,55.999828185084695
818,19.689934109434517
819,0.008132327856960903
820,57.71671101835291
883,19.660543167118703
884,0.00812541649185246
885,57.773650685612694
948,19.696629204254975
949,0.008116100102281943
950,57.57908338044927
1013,20.790772630774853
1014,0.007359438660642002
1015,48.85452926974662
1078,66.28217727746775
1238,0.0
1301,0.0
1304,0.0
1307,0.0
1310,0.0
1313,0.0
1339,0.0
2,1, 1,14, 0, 7, 0.00,60.00,Tuesday
7,7.425
450,17.338249915712247
451,19.624526809731464
452,19.640917325352113
453,19.61877992620813
454,19.647461435502073
455,20.734317266633457
456,17.378530335456805
457,19.58643614101204
458,19.610746326461637
459,19.581438696369723
460,19.617884271928318
461,20.719629325117925
1226,0.0
1227,0.0
1228,0.0
1229,0.0
1230,0.0
1231,0.0
1232,0.0
1233,0.0
1234,0.0
1235,0.0
1236,0.0
1237,0.0
462,0.0
512,0.0
538,0.0
564,0.0
590,0.0
616,17.418810755201363
617,0.0063936076690064405
618,52.49120276083903
753,19.54834547229262
754,0.007831091468942893
755,56.13077556898007
818,19.580575327571168
819,0.008077856016160578
820,57.76098203944527
883,19.54409746653132
884,0.008070863169971592
885,57.84261421299294
948,19.588307108354556
949,0.008062144117574324
950,57.62237925303478
1013,20.704941383602392
1014,0.007329440258921991
1015,48.94534909212288
1078,66.28217727746775
1238,0.0
1301,0.0
1304,0.0
1307,0.0
1310,0.0
1313,0.0
1339,0.0
2,1, 1,14, 0, 8, 0.00,60.00,Tuesday
7,7.2
450,17.251138606418905
451,19.811001863268515
452,19.96125128010882
453,19.821600769844277
454,19.843947293600202
455,20.74568296170616
456,17.290676097744274
457,20.378896123012595
458,20.45481348723449
459,20.38404971872507
460,20.396368521688785
461,20.87154772879345
1226,0.0
1227,0.0
1228,0.0
1229,0.0
1230,0.0
1231,0.0
1232,0.0
1233,0.0
1234,0.0
1235,0.0
1236,0.0
1237,0.0
462,0.0
512,0.0
538,0.0
564,0.0
590,0.0
616,17.330213589069647
617,0.006393607669006443
618,52.80502916651494
753,20.94679038275668
754,0.007790920972753859
755,51.24491095385063
818,20.94837569436016
819,0.00803185562603414
820,52.80400779266181
883,20.946498667605862
884,0.008024776163447286
885,52.76461912220611
948,20.948789749777372
949,0.008016528821498184
950,52.70309620143883
1013,20.997412495880738
1014,0.0073017270195270805
1015,47.910351582433094
1078,68.38323353293413
1238,693.0248486736994
1301,275.65018890155017
1304,675.0132811799097
1307,308.5412765141106
1310,205.95980025523423
1313,2107.77213484797
1339,2676.6280153474077
2,1, 1,14, 0, 9, 0.00,60.00,Tuesday
7,6.8875
450,17.567314066308793
451,20.92776930750421
452,21.366669705975944
453,21.036297474430334
454,21.009560877040727
455,21.87669572155719
456,17.59502058200121
457,21.778449827288338
458,22.156713256230738
459,21.88857188258048
460,21.82334974095272
461,22.807175181840673
1226,0.0
1227,0.0
1228,0.0
1229,0.0
1230,0.0
1231,0.0
1232,0.0
1233,0.0
1234,0.0
1235,0.0
1236,0.0
1237,0.0
462,0.0
512,0.0
538,0.0
564,0.0
590,0.0
616,17.622727097693627
617,0.0063936076690064465
618,51.84100933973328
753,22.629130347072476
754,0.008534124475066546
755,50.54661991012795
818,22.94675680648553
819,0.008825264108275839
820,51.245899864153735
883,22.740846290730627
884,0.008768464003873148
885,51.56540488607416
948,22.63713860486472
949,0.008796633578376444
950,52.05275476828657
1013,23.737654642124156
1014,0.008081494026223867
1015,44.79103834570032
1078,66.28217727746815
1238,0.0
1301,0.0
1304,0.0
1307,0.0
1310,0.0
1313,0.0
1339,0.0
2,1, 1,14, 0,10, 0.00,60.00,Tuesday
7,7.0125
450,18.207705171599166
451,22.204453013136344
452,23.05941357407858
453,22.4378885385105
454,22.40324786926275
455,23.025339305524028
456,18.240954442433626
457,23.39289274594723
458,24.16518771091119
459,23.636521735874553
460,23.524755275658926
461,24.475749816994252
1226,0.0
1227,0.0
1228,0.0
1229,0.0
1230,0.0
1231,0.0
1232,0.0
1233,0.0
1234,0.0
1235,0.0
1236,0.0
1237,0.0
462,0.0
512,0.0
538,0.0
564,0.0
590,0.0
616,18.274203713268083
617,0.006393607669006449
618,49.76210420657515
753,24.581332478758114
754,0.009947283902755066
755,52.2330831047781
818,25.270961847743806
819,0.010388470613342271
820,52.29672211628589
883,24.835154933238606
884,0.01020836420843362
885,52.77370333393185
948,24.646262682055106
949,0.01028977924096621
950,53.78975082541436
1013,25.926160328464476
1014,0.009648280100837594
1015,46.77978730206591
1078,66.28217727746815
1238,0.0
1301,0.0
1304,0.0
1307,0.0
1310,0.0
1313,0.0
1339,0.0
2,1, 1,14, 0,11, 0.00,60.00,Tuesday
7,7.575
450,19.130263030394598
451,23.435418267541607
452,24.915305499039704
453,23.63770457920304
454,23.62056705430105
455,23.85473665881958
456,19.16558092301031
457,24.702155198863405
458,26.08555327605928
459,24.927176502430697
460,24.817517104769742
461,25.417297422890442
1226,0.0
1227,0.75
1228,1.0
1229,0.75
1230,0.75
1231,0.75
1232,0.0
1233,0.0
1234,0.0
1235,0.0
1236,0.0
1237,0.0
462,0.0
512,0.0
538,0.0
564,0.0
590,0.0
616,19.200898815626026
617,0.006393607669006455
618,46.96246505695031
753,25.96889213018521
754,0.012631141398600698
755,60.818224781277664
818,27.255801053078855
819,0.013464226013020199
820,59.982541701223994
883,26.216648425658356
884,0.012962799122575416
885,61.483257718930325
948,26.01446715523843
949,0.013135104574696512
950,63.029226562290134
1013,26.979858186961305
1014,0.012578324849291216
1015,57.08669035153628
1078,66.28217727746815
1238,0.0
1301,0.0
1304,0.0
1307,0.0
1310,0.0
1313,0.0
1339,0.0
2,1, 1,14, 0,12, 0.00,60.00,Tuesday
7,8.799999999999999
450,20.28634973657917
451,24.625445917291387
452,26.42574728663052
453,24.441655171675038
454,24.465025105006116
455,24.33640685178568
456,20.310851848147678
457,25.81338287477157
458,27.532806356441455
459,25.662476830164806
460,25.5935945975363
461,25.820446614627546
1226,0.0
1227,1.0
1228,1.0
1229,1.0
1230,1.0
1231,1.0
1232,0.0
1233,0.0
1234,0.0
1235,0.0
1236,0.0
1237,0.0
462,0.0
512,0.0
538,0.0
564,0.0
590,0.0
616,20.33535395971618
617,0.006393607669006455
618,43.77311473095723
753,27.00131983225175
754,0.015395164371549998
755,69.48575962363047
818,28.63986542625239
819,0.016771321182511827
820,68.64097630419454
883,26.883298488654574
884,0.015764096877866285
885,71.62348373893118
948,26.722164090066478
949,0.016037144082507795
950,73.52318655135596
1013,27.304486377469416
1014,0.01547537319903931
1015,68.63788724562235
1078,66.28217727746815
1238,0.0
1301,0.0
1304,0.0
1307,0.0
1310,0.0
1313,0.0
1339,0.0
2,1, 1,14, 0,13, 0.00,60.00,Tuesday
7,10.4625
450,21.455678169619294
451,25.277692839019853
452,26.357347355377144
453,24.61975463275641
454,24.716814669873735
455,24.23865418091885
456,21.45758641070607
457,25.084192486163417
458,25.87364409817721
459,24.67455253170616
460,24.669357099323705
461,24.471772133595003
1226,0.0
1227,0.75
1228,0.75
1229,0.75
1230,0.75
1231,0.75
1232,0.0
1233,0.0
1234,0.0
1235,0.0
1236,0.0
1237,0.0
462,0.10017811639085103
512,0.05910371965189046
538,0.0770565414482254
564,0.037398056745584676
590,0.14418913299923045
616,21.459494651792852
617,0.0063936076690064595
618,40.81890280032378
753,24.890692133306977
754,0.013427910602533216
755,68.28197206276894
818,25.389940840977275
819,0.013906619491782433
820,68.06136463339993
883,24.729350430655906
884,0.014007306362862144
885,71.98805914782326
948,24.62189952877368
949,0.014083451268770988
950,72.78039174504758
1013,24.704890086271156
1014,0.013841852048344174
1015,71.24129023432894
1078,66.28217727746816
1238,0.0
1301,0.0
1304,0.0
1307,0.0
1310,0.0
1313,0.0
1339,0.0
2,1, 1,14, 0,14, 0.00,60.00,Tuesday
7,10.7875
450,22.45909042371537
451,25.603492531288932
452,25.319616326176266
453,24.27704890673092
454,24.392322375354592
455,23.957788537038997
456,22.43116952649477
457,24.744339040111843
458,24.579546082958785
459,24.066839008275867
460,24.103936886339135
461,23.886894135726145
1226,0.0
1227,0.0
1228,0.0
1229,0.0
1230,0.0
1231,0.0
1232,0.0
1233,0.0
1234,0.0
1235,0.0
1236,0.0
1237,0.0
462,0.1356402713205189
512,0.05857193278722436
538,0.09934172892946783
564,0.04702310968205586
590,0.16801627876153075
616,22.403248629274174
617,0.006393607669006461
618,38.49778030440751
753,23.88518554893475
754,0.009327418503890076
755,51.096475335572805
818,23.8394758397413
819,0.009126973131294382
820,50.159281672211314
883,23.856629109820823
884,0.01036268975513208
885,56.79176043456044
948,23.815551397323674
949,0.010143167715671919
950,55.74309140871658
1013,23.815999734413296
1014,0.010479346646841236
1015,57.56223027028506
1078,66.28217727746815
1238,0.0
1301,0.0
1304,0.0
1307,0.0
1310,0.0
1313,0.0
1339,0.0
2,1, 1,14, 0,15, 0.00,60.00,Tuesday
7,10.6
450,23.33099342770387
451,25.35031979373356
452,24.718987982277373
453,24.135487654082592
454,24.246573945032445
455,24.038235026450707
456,23.298704852605795
457,24.58995114118475
458,24.295495265952837
459,23.99029173115067
460,24.08728382144693
461,23.924381615916154
1226,0.0
1227,0.0
1228,0.0
1229,0.0
1230,0.0
1231,0.0
1232,0.0
1233,0.0
1234,0.0
1235,0.0
1236,0.0
1237,0.0
462,0.12603520651376254
512,0.04700196560114167
538,0.08975298587009424
564,0.04700196560114167
590,0.16794687347078063
616,23.26641627750772
617,0.006393607669006464
618,36.497300571205926
753,23.829582488635936
754,0.00812010142383611
755,44.69303394059459
818,23.87200254962829
819,0.008191582912098753
820,44.95924307021965
883,23.845095808218744
884,0.009106998913944247
885,49.995838067862415
948,23.92799369786142
949,0.008948625754459583
950,48.88276309255629
1013,23.8105282053816
1014,0.009187566907071577
1015,50.53817979999482
1078,66.28217727746815
1238,0.0
1301,0.0
1304,0.0
1307,0.0
1310,0.0
1313,0.0
1339,0.0
2,1, 1,14, 0,16, 0.00,60.00,Tuesday
7,10.9125
450,23.86795377540098
451,26.094670753046124
452,24.379314725974577
453,24.07567667780524
454,24.606052846796647
455,24.09206110288266
456,23.85960697447402
457,24.98082287856485
458,24.10906609950896
459,23.94852031705652
460,24.2497920763176
461,23.95035293561827
1226,0.0
1227,0.0
1228,0.0
1229,0.0
1230,0.0
1231,0.0
1232,0.0
1233,0.0
1234,0.0
1235,0.0
1236,0.0
1237,0.0
462,0.16203334280758053
512,0.04691889064254541
538,0.08959715760226958
564,0.046918890642545424
590,0.167655285729985
616,23.851260173547043
617,0.0063936076690064665
618,35.21760366271786
753,23.86697500408358
754,0.007671801233549783
755,42.13819885454619
818,23.838817473043342
819,0.008023432061067369
820,44.115795142651216
883,23.8213639563078
884,0.008624300955700786
885,47.42802498364259
948,23.893531305838547
949,0.00840667487654351
950,46.04226202270116
1013,23.808644768353883
1014,0.008647187325146188
1015,47.58918164417987
1078,66.28217727746815
1238,0.0
1301,0.0
1304,0.0
1307,0.0
1310,0.0
1313,0.0
1339,0.0
2,1, 1,14, 0,17, 0.00,60.00,Tuesday
7,11.787499999999998
450,23.913301553007965
451,24.615125858906815
452,23.78348503528242
453,23.58575402579133
454,24.003203698445972
455,24.015766993316817
456,23.930937260538606
457,24.26716767059506
458,23.789484533435896
459,23.69862499810393
460,23.937353518304302
461,23.92105525800638
1226,0.0
1227,0.0
1228,0.0
1229,0.0
1230,0.0
1231,0.0
1232,0.0
1233,0.0
1234,0.0
1235,0.0
1236,0.0
1237,0.0
462,0.10269359046430183
512,0.03695045013029875
538,0.06845102779377846
564,0.03695045013029875
590,0.16011862268836802
616,23.948572968069247
617,0.006393607669006473
618,35.011328359122494
753,23.919209482283307
754,0.007635423142802663
755,41.80462282842233
818,23.795484031589368
819,0.008105551119004174
820,44.676530499293364
883,23.811495970416534
884,0.008512276489704968
885,46.842998930149875
948,23.871503338162633
949,0.00818920841317433
950,44.92508144491189
1013,23.826343522695936
1014,0.008306432490592897
1015,45.690393097508306
1078,66.28217727746815
1238,0.0
1301,0.0
1304,0.0
1307,0.0
1310,0.0
1313,0.0
1339,0.0
2,1, 1,14, 0,18, 0.00,60.00,Tuesday
7,11.8875
450,23.582262733326505
451,23.808083119874603
452,23.437042041980405
453,23.33258639961986
454,23.55454206506937
455,23.861746794668626
456,23.618814521692897
457,23.820542795971257
458,23.611881751352335
459,23.545004950672798
460,23.660492722395688
461,23.88076759700529
1226,0.0
1227,0.0
1228,0.0
1229,0.0
1230,0.0
1231,0.0
1232,0.0
1233,0.0
1234,0.0
1235,0.0
1236,0.0
1237,0.0
462,0.08557061859895675
512,0.029562076493090377
538,0.06845954855010908
564,0.033254865408568486
590,0.16012077721242637
616,23.655366310059293
617,0.006393607669006474
618,35.63552986606401
753,23.833002472067914
754,0.007706130226736542
755,42.40617078240075
818,23.786721460724266
819,0.008071183147434132
820,44.51222954515719
883,23.757423501725736
884,0.008371413985969627
885,46.227404333325566
948,23.766443379722016
949,0.008029138332592846
950,44.33782274284226
1013,23.89978839934195
1014,0.00786738833963979
1015,43.10724212267572
1078,66.28217727746815
1238,0.0
1301,0.0
1304,0.0
1307,0.0
1310,0.0
1313,0.0
1339,0.0
2,1, 1,14, 0,19, 0.00,60.00,Tuesday
7,11.325
450,22.900499885449427
451,22.984585781703828
452,22.907480378092075
453,22.868219323832662
454,22.929151044096553
455,23.345173197647963
456,22.979490412300542
457,23.267956712718032
458,23.198651632310597
459,23.243039152490983
460,23.244160007206446
461,23.45313240831058
1226,0.0
1227,0.0
1228,0.0
1229,0.0
1230,0.0
1231,0.0
1232,0.0
1233,0.0
1234,0.0
1235,0.0
1236,0.0
1237,0.0
462,0.053494195889497845
512,0.0230973688643306
538,0.01713730535001807
564,0.026798666988915962
590,0.13071327145645886
616,23.05848093915167
617,0.006393607669006478
618,36.94479408682774
753,23.551327643732254
754,0.00788153537828035
755,44.11153379531739
818,23.489822886529133
819,0.008235722047422414
820,46.234543891413885
883,23.61785898114932
884,0.00843386804282922
885,46.9602767705497
948,23.559168970316346
949,0.008151990845079208
950,45.58090145341324
1013,23.5610916189732
1014,0.007727264685138601
1015,43.23238853111645
1078,66.2821772774682
1238,0.0
1301,0.0
1304,0.0
1307,0.0
1310,0.0
1313,0.0
1339,0.0
2,1, 1,14, 0,20, 0.00,60.00,Tuesday
7,10.7875
450,22.155069982476377
451,22.3655594201713
452,22.383461620173886
453,22.279100860461398
454,22.37551579247723
455,22.919323255625727
456,22.241258523177205
457,22.844860132139452
458,22.800826557759606
459,22.584147576596745
460,22.841577691363337
461,23.230842663769455
1226,0.0
1227,0.0
1228,0.0
1229,0.0
1230,0.0
1231,0.0
1232,0.0
1233,0.0
1234,0.0
1235,0.0
1236,0.0
1237,0.0
462,0.0
512,0.0
538,0.008577093072642912
564,0.0
590,0.028403604162427223
616,22.327447063878033
617,0.006393607669006478
618,38.6212592454175
753,23.324160844107595
754,0.008036124053748553
755,45.576488896122285
818,23.218191495345316
819,0.00833311851665114
820,47.540660473533634
883,22.889194292732086
884,0.00833933325433967
885,48.531127450376445
948,23.307639590249437
949,0.008314033374964181
950,47.17949650574444
1013,23.542362071913175
1014,0.007702572909600593
1015,43.13824593216153
1078,66.28217727746815
1238,0.0
1301,0.0
1304,0.0
1307,0.0
1310,0.0
1313,0.0
1339,0.0
2,1, 1,14, 0,21, 0.00,60.00,Tuesday
7,10.9125
450,21.5050752074448
451,22.015844232414814
452,22.03407751619241
453,21.928598063532164
454,22.04842959864261
455,22.69567567300176
456,21.566205161130547
457,22.484738982111896
458,22.47074045848391
459,22.386120275080515
460,22.488280230736336
461,23.096183655089227
1226,0.0
1227,0.0
1228,0.0
1229,0.0
1230,0.0
1231,0.0
1232,0.0
1233,0.0
1234,0.0
1235,0.0
1236,0.0
1237,0.0
462,0.0
512,0.0
538,0.0
564,0.0
590,0.01235854102225772
616,21.627335114816294
617,0.006393607669006483
618,40.329850028491215
753,22.95363373180897
754,0.008158577156237707
755,47.3372507324178
818,22.907403400775404
819,0.008459530387375786
820,49.19733238088546
883,22.84364248662887
884,0.008456370297119148
885,49.368740818566984
948,22.928130862830066
949,0.008439956754798562
950,49.02361670153027
1013,23.49669163717668
1014,0.007644504544679783
1015,42.9598742787945
1078,66.28217727746815
1238,0.0
1301,0.0
1304,0.0
1307,0.0
1310,0.0
1313,0.0
1339,0.0
2,1, 1,14, 0,22, 0.00,60.00,Tuesday
7,11.474999999999998
450,20.82004623079622
451,21.45552502664793
452,21.499274447436488
453,21.405613883385602
454,21.511234812899055
455,22.150209326614835
456,20.87820111806229
457,21.563648341890236
458,21.5951763617348
459,21.512813513908235
460,21.60842094089422
461,22.359973316759895
1226,0.0
1227,0.0
1228,0.0
1229,0.0
1230,0.0
1231,0.0
1232,0.0
1233,0.0
1234,0.0
1235,0.0
1236,0.0
1237,0.0
462,0.0
512,0.0
538,0.0
564,0.0
590,0.0
616,20.93635600532836
617,0.00639360766900649
618,42.092379934851195
753,21.67177165713253
754,0.008188255040801987
755,51.399198960767194
818,21.691078276033117
819,0.008488933771579067
820,53.195133067742525
883,21.62001314443087
884,0.008482807127118793
885,53.390789553625176
948,21.70560706888939
949,0.008469655795003372
950,53.028885787513474
1013,22.569737306904948
1014,0.007570104339186334
1015,45.02276597287594
1078,66.28217727746815
1238,0.0
1301,0.0
1304,0.0
1307,0.0
1310,0.0
1313,0.0
1339,0.0
2,1, 1,14, 0,23, 0.00,60.00,Tuesday
7,11.7
450,20.197955001401834
451,20.952452814409927
452,20.990517145820625
453,20.915961636859265
454,20.999155751993534
455,21.727575843726136
456,20.239198997497752
457,20.950219819276434
458,20.99159866862237
459,20.914307415916326
460,21.00104513405492
461,21.820685859076377
1226,0.0
1227,0.0
1228,0.0
1229,0.0
1230,0.0
1231,0.0
1232,0.0
1233,0.0
1234,0.0
1235,0.0
1236,0.0
1237,0.0
462,0.0
512,0.0
538,0.0
564,0.0
590,0.0
616,20.280442993593674
617,0.006393607669006492
618,43.827270676123014
753,20.947986824142937
754,0.00813877396215892
755,53.39020864652307
818,20.99268019142411
819,0.008433054403500066
820,55.14323625985155
883,20.912653194973387
884,0.008426808326768374
885,55.37462310133178
948,21.002934516116305
949,0.008414198676173086
950,54.98695135195927
1013,21.913795874426615
1014,0.00753594020848606
1015,46.640096553719715
1078,66.28217727746815
1238,0.0
1301,0.0
1304,0.0
1307,0.0
1310,0.0
1313,0.0
1339,0.0
2,1, 1,14, 0,24, 0.00,60.00,Tuesday
7,11.0125
450,19.713115029941207
451,20.650070792534137
452,20.68221660715001
453,20.62125539461733
454,20.682668003675204
455,21.472157077780107
456,19.75073874433488
457,20.64425682828106
458,20.67902437392698
459,20.615433370065706
460,20.679260786823097
461,21.54105347442045
1226,0.0
1227,0.0
1228,0.0
1229,0.0
1230,0.0
1231,0.0
1232,0.0
1233,0.0
1234,0.0
1235,0.0
1236,0.0
1237,0.0
462,0.0
512,0.0
538,0.0
564,0.0
590,0.0
616,19.78836245872855
617,0.006393607669006494
618,45.18255713901965
753,20.638442864027986
754,0.008118917513818089
755,54.2865879854617
818,20.67583214070395
819,0.008410331441041752
820,56.0796285780688
883,20.609611345514086
884,0.008404023380078243
885,56.26733218909724
948,20.675853569970993
949,0.008391666241006504
950,55.95680264986763
1013,21.609949871060802
1014,0.007522187008696237
1015,47.42859462339216
1078,66.28217727746815
1238,0.0
1301,0.0
1304,0.0
1307,0.0
1310,0.0
1313,0.0
1339,0.0
1,RUN PERIOD 2,  37.62,-122.40,  -8.00,   2.00
2,1, 7, 7, 0, 1, 0.00,60.00,Tuesday
7,13.8625
450,22.43610732691752
451,22.254171158509617
452,22.298464910001464
453,22.243006421436576
454,22.31677900602147
455,23.006399530964323
456,22.482027344781248
457,22.173447446673812
458,22.227827095762148
459,22.16171956272742
460,22.246450014520757
461,22.956360671100157
1226,0.0
1227,0.0
1228,0.0
1229,0.0
1230,0.0
1231,0.0
1232,0.0
1233,0.0
1234,0.0
1235,0.0
1236,0.0
1237,0.0
462,0.0
512,0.0
538,0.0
564,0.0
590,0.0
616,22.52794736264497
617,0.008599050883723489
618,50.563964907022104
753,22.092723734838003
754,0.009278960642007741
755,55.96303169842221
818,22.157189281522832
819,0.009258974395534181
820,55.62525605979874
883,22.080432704018268
884,0.00925503349653597
885,55.86264407498225
948,22.17612102302005
949,0.009184333753369552
950,55.11985591752912
1013,22.906321811235983
1014,0.009230297179098443
1015,52.98823092806835
1078,65.6
1238,0.0
1301,0.0
1304,0.0
1307,0.0
1310,0.0
1313,0.0
1339,0.0
2,1, 7, 7, 0, 2, 0.00,60.00,Tuesday
7,13.05
450,21.920460993647744
451,22.046196929979523
452,22.094297827511504
453,22.0413066647659
454,22.10302747241909
455,22.86108968176564
456,21.960901645352152
457,21.95219752115662
458,22.014340689924836
459,21.947929309274038
460,22.022943644762925
461,22.788923314549628
1226,0.0
1227,0.0
1228,0.0
1229,0.0
1230,0.0
1231,0.0
1232,0.0
1233,0.0
1234,0.0
1235,0.0