Program Version,EnergyPlus, Version 9.6.0-f420c06a69, YMD=2022.10.04 15:23
1,5,Environment Title[],Latitude[deg],Longitude[deg],Time Zone[],Elevation[m]
2,8,Day of Simulation[],Month[],Day of Month[],DST Indicator[1=yes 0=no],Hour[],StartMinute[],EndMinute[],DayType
3,5,Cumulative Day of Simulation[],Month[],Day of Month[],DST Indicator[1=yes 0=no],DayType  ! When Daily Report Variables Requested
4,2,Cumulative Days of Simulation[],Month[]  ! When Monthly Report Variables Requested
5,1,Cumulative Days of Simulation[] ! When Run Period Report Variables Requested
6,1,Calendar Year of Simulation[] ! When Annual Report Variables Requested
7,1,Environment,Site Outdoor Air Drybulb Temperature [C] !TimeStep
8,1,Environment,Site Outdoor Air Dewpoint Temperature [C] !TimeStep
9,1,Environment,Site Outdoor Air Wetbulb Temperature [C] !TimeStep
10,1,Environment,Site Diffuse Solar Radiation Rate per Area [W/m2] !TimeStep
11,1,Environment,Site Direct Solar Radiation Rate per Area [W/m2] !TimeStep
12,1,Environment,Site Solar Azimuth Angle [deg] !TimeStep
13,1,Environment,Site Solar Altitude Angle [deg] !TimeStep
End of Data Dictionary
1,DENVER_STAPLETON ANN HTG 99.6% CONDNS DB,  37.62,-122.40,  -8.00,   2.00
2,1,12,21, 0, 1, 0.00,15.00,WinterDesignDay
7,-20.0
8,-20.000010377544204
9,-20.00000247649434
10,0.0
11,0.0
12,7.333553923143686
13,-75.7607269059242
2,1,12,21, 0, 1,15.00,30.00,WinterDesignDay
7,-20.0
8,-20.000010377544204
9,-20.00000247649434
10,0.0
11,0.0
12,20.70499081306916
13,-75.0376978806774
2,1,12,21, 0, 1,30.00,45.00,WinterDesignDay
7,-20.0
8,-20.000010377544204
9,-20.00000247649434
10,0.0
11,0.0
12,32.50009993492328
13,-73.70286771182121
2,1,12,21, 0, 1,45.00,60.00,WinterDesignDay
7,-20.0
8,-20.000010377544204
9,-20.00000247649434
10,0.0
11,0.0
12,42.41242204851382
13,-71.89233237899329
2,1,12,21, 0, 2, 0.00,15.00,WinterDesignDay
7,-20.0
8,-20.000010377544204
9,-20.00000247649434
10,0.0
11,0.0
12,50.58166589060496
13,-69.73494372165109
2,1,12,21, 0, 2,15.00,30.00,WinterDesignDay
7,-20.0
8,-20.000010377544204
9,-20.00000247649434
10,0.0
11,0.0
12,57.31817936132313
13,-67.33162229838416
2,1,12,21, 0, 2,30.00,45.00,WinterDesignDay
7,-20.0
8,-20.000010377544204
9,-20.00000247649434
10,0.0
11,0.0
12,62.938278658182334
13,-64.75490111714596
2,1,12,21, 0, 2,45.00,60.00,WinterDesignDay
7,-20.0
8,-20.000010377544204
9,-20.00000247649434
10,0.0
11,0.0
12,67.70553770972306
13,-62.055339857613895
2,1,12,21, 0, 3, 0.00,15.00,WinterDesignDay
7,-20.0
8,-20.000010377544204
9,-20.00000247649434
10,0.0
11,0.0
12,71.82337696112548
13,-59.26813888489493
2,1,12,21, 0, 3,15.00,30.00,WinterDesignDay
7,-20.0
8,-20.000010377544204
9,-20.00000247649434
10,0.0
11,0.0
12,75.44448314648257
13,-56.41815124435116
2,1,12,21, 0, 3,30.00,45.00,WinterDesignDay
7,-20.0
8,-20.000010377544204
9,-20.00000247649434
10,0.0
11,0.0
12,78.68285660988909
13,-53.52331241053906
2,1,12,21, 0, 3,45.00,60.00,WinterDesignDay
7,-20.0
8,-20.000010377544204
9,-20.00000247649434
10,0.0
11,0.0
12,81.62410751014829
13,-50.59690749734114
2,1,12,21, 0, 4, 0.00,15.00,WinterDesignDay
7,-20.0
8,-20.000010377544204
9,-20.00000247649434
10,0.0
11,0.0
12,84.33326376100554
13,-47.64906162957369
2,1,12,21, 0, 4,15.00,30.00,WinterDesignDay
7,-20.0
8,-20.000010377544204
9,-20.00000247649434
10,0.0
11,0.0
12,86.86043142722352
13,-44.6877277817159
2,1,12,21, 0, 4,30.00,45.00,WinterDesignDay
7,-20.0
8,-20.000010377544204
9,-20.00000247649434
10,0.0
11,0.0
12,89.24483603984501
13,-41.71935161907452
2,1,12,21, 0, 4,45.00,60.00,WinterDesignDay
7,-20.0
8,-20.000010377544204
9,-20.00000247649434
10,0.0
11,0.0
12,91.51770413157492
13,-38.749327607427134
2,1,12,21, 0, 5, 0.00,15.00,WinterDesignDay
7,-20.0
8,-20.000010377544204
9,-20.00000247649434
10,0.0
11,0.0
12,93.70432964099214
13,-35.78231878282869
2,1,12,21, 0, 5,15.00,30.00,WinterDesignDay
7,-20.0
8,-20.000010377544204
9,-20.00000247649434
10,0.0
11,0.0
12,95.8255697701416
13,-32.82248634654091
2,1,12,21, 0, 5,30.00,45.00,WinterDesignDay
7,-20.0
8,-20.000010377544204
9,-20.00000247649434
10,0.0
11,0.0
12,97.89894010713007
13,-29.87365888515953
2,1,12,21, 0, 5,45.00,60.00,WinterDesignDay
7,-20.0
8,-20.000010377544204
9,-20.00000247649434
10,0.0
11,0.0
12,99.9394261493841
13,-26.93946074209368
2,1,12,21, 0, 6, 0.00,15.00,WinterDesignDay
7,-20.0
8,-20.000010377544204
9,-20.00000247649434
10,0.0
11,0.0
12,101.96009211283702
13,-24.023412543694246
2,1,12,21, 0, 6,15.00,30.00,WinterDesignDay
7,-20.0
8,-20.000010377544204
9,-20.00000247649434
10,0.0
11,0.0
12,103.97254313324514
13,-21.129012682695826
2,1,12,21, 0, 6,30.00,45.00,WinterDesignDay
7,-20.0
8,-20.000010377544204
9,-20.00000247649434
10,0.0
11,0.0
12,105.98727998714779
13,-18.25980581109989
2,1,12,21, 0, 6,45.00,60.00,WinterDesignDay
7,-20.0
8,-20.000010377544204
9,-20.00000247649434
10,0.0
11,0.0
12,108.01397372845804
13,-15.419442557429836
2,1,12,21, 0, 7, 0.00,15.00,WinterDesignDay
7,-20.0
8,-20.000010377544204
9,-20.00000247649434
10,0.0
11,0.0
12,110.06167942282131
13,-12.611733424310287
2,1,12,21, 0, 7,15.00,30.00,WinterDesignDay
7,-20.0
8,-20.000010377544204
9,-20.00000247649434
10,0.0
11,0.0
12,112.13900230520132
13,-9.84069892804776
2,1,12,21, 0, 7,30.00,45.00,WinterDesignDay
7,-20.0
8,-20.000010377544204
9,-20.00000247649434
10,0.0
11,0.0
12,114.25422540869472
13,-7.1106173724630795
2,1,12,21, 0, 7,45.00,60.00,WinterDesignDay
7,-20.0
8,-20.000010377544204
9,-20.00000247649434
10,0.0
11,0.0
12,116.41540449188201
13,-4.426071109539553
2,1,12,21, 0, 8, 0.00,15.00,WinterDesignDay
7,-20.0
8,-20.000010377544204
9,-20.00000247649434
10,0.0
11,0.0
12,118.63043357797746
13,-1.7919916616256402
2,1,12,21, 0, 8,15.00,30.00,WinterDesignDay
7,-20.0
8,-20.000010377544204
9,-20.00000247649434
10,0.0
11,0.0
12,120.90708238149557
13,0.7862963871812766
2,1,12,21, 0, 8,30.00,45.00,WinterDesignDay
7,-20.0
8,-20.000010377544204
9,-20.00000247649434
10,0.0
11,0.0
12,123.25300519597627
13,3.3030333195720165
2,1,12,21, 0, 8,45.00,60.00,WinterDesignDay
7,-20.0
8,-20.000010377544204
9,-20.00000247649434
10,0.0
11,0.0
12,125.6757193816166
13,5.751985180979268
2,1,12,21, 0, 9, 0.00,15.00,WinterDesignDay
7,-20.0
8,-20.000010377544204
9,-20.00000247649434
10,0.0
11,0.0
12,128.1825504249241
13,8.126409433890093
2,1,12,21, 0, 9,15.00,30.00,WinterDesignDay
7,-20.0
8,-20.000010377544204
9,-20.00000247649434
10,0.0
11,0.0
12,130.7805397151964
13,10.41902790138508
2,1,12,21, 0, 9,30.00,45.00,WinterDesignDay
7,-20.0
8,-20.000010377544204
9,-20.00000247649434
10,0.0
11,0.0
12,133.47631084341998
13,12.622010360154638
2,1,12,21, 0, 9,45.00,60.00,WinterDesignDay
7,-20.0
8,-20.000010377544204
9,-20.00000247649434
10,0.0
11,0.0
12,136.27589060829226
13,14.726973026841785
2,1,12,21, 0,10, 0.00,15.00,WinterDesignDay
7,-20.0
8,-20.000010377544204
9,-20.00000247649434
10,0.0
11,0.0
12,139.18448231698557
13,16.724997043333303
2,1,12,21, 0,10,15.00,30.00,WinterDesignDay
7,-20.0
8,-20.000010377544204
9,-20.00000247649434
10,0.0
11,0.0
12,142.2061917463987
13,18.606672776200504
2,1,12,21, 0,10,30.00,45.00,WinterDesignDay
7,-20.0
8,-20.000010377544204
9,-20.00000247649434
10,0.0
11,0.0
12,145.34371061327434
13,20.36217610788907
2,1,12,21, 0,10,45.00,60.00,WinterDesignDay
7,-20.0
8,-20.000010377544204
9,-20.00000247649434
10,0.0
11,0.0
12,148.59796877461397
13,21.981382653079123
2,1,12,21, 0,11, 0.00,15.00,WinterDesignDay
7,-20.0
8,-20.000010377544204
9,-20.00000247649434
10,0.0
11,0.0
12,151.96777450727012
13,23.45402468019106
2,1,12,21, 0,11,15.00,30.00,WinterDesignDay
7,-20.0
8,-20.000010377544204
9,-20.00000247649434
10,0.0
11,0.0
12,155.44947142529267
13,24.76989316278888
2,1,12,21, 0,11,30.00,45.00,WinterDesignDay
7,-20.0
8,-20.000010377544204
9,-20.00000247649434
10,0.0
11,0.0
12,159.03664949215653
13,25.919083639312323
2,1,12,21, 0,11,45.00,60.00,WinterDesignDay
7,-20.0
8,-20.000010377544204
9,-20.00000247649434
10,0.0
11,0.0
12,162.7199540168638
13,26.892279462553745
2,1,12,21, 0,12, 0.00,15.00,WinterDesignDay
7,-20.0
8,-20.000010377544204
9,-20.00000247649434
10,0.0
11,0.0
12,166.48703781757357
13,27.68105997343066
2,1,12,21, 0,12,15.00,30.00,WinterDesignDay
7,-20.0
8,-20.000010377544204
9,-20.00000247649434
10,0.0
11,0.0
12,170.32269534773974
13,28.278214976287217
2,1,12,21, 0,12,30.00,45.00,WinterDesignDay
7,-20.0
8,-20.000010377544204
9,-20.00000247649434
10,0.0
11,0.0
12,174.20920207276652
13,28.67804185587909
2,1,12,21, 0,12,45.00,60.00,WinterDesignDay
7,-20.0
8,-20.000010377544204
9,-20.00000247649434
10,0.0
11,0.0
12,178.1268584831889
13,28.876599154007536
2,1,12,21, 0,13, 0.00,15.00,WinterDesignDay
7,-20.0
8,-20.000010377544204
9,-20.00000247649434
10,0.0
11,0.0
12,182.05470931253308
13,28.871891579208256
2,1,12,21, 0,13,15.00,30.00,WinterDesignDay
7,-20.0
8,-20.000010377544204
9,-20.00000247649434
10,0.0
11,0.0
12,185.97138065754768
13,28.663966733660125
2,1,12,21, 0,13,30.00,45.00,WinterDesignDay
7,-20.0
8,-20.000010377544204
9,-20.00000247649434
10,0.0
11,0.0
12,189.85595750279728
13,28.254912781400243
2,1,12,21, 0,13,45.00,60.00,WinterDesignDay
7,-20.0
8,-20.000010377544204
9,-20.00000247649434
10,0.0
11,0.0
12,193.68881698484998
13,27.64875732131867
2,1,12,21, 0,14, 0.00,15.00,WinterDesignDay
7,-20.0
8,-20.000010377544204
9,-20.00000247649434
10,0.0
11,0.0
12,197.45234057562197
13,26.851278715545305
2,1,12,21, 0,14,15.00,30.00,WinterDesignDay
7,-20.0
8,-20.000010377544204
9,-20.00000247649434
10,0.0
11,0.0
12,201.13144905244556
13,25.86974992282105
2,1,12,21, 0,14,30.00,45.00,WinterDesignDay
7,-20.0
8,-20.000010377544204
9,-20.00000247649434
10,0.0
11,0.0
12,204.71393218632068
13,24.712640008324158
2,1,12,21, 0,14,45.00,60.00,WinterDesignDay
7,-20.0
8,-20.000010377544204
9,-20.00000247649434
10,0.0
11,0.0
12,208.19057378535135
13,23.38929946941414
2,1,12,21, 0,15, 0.00,15.00,WinterDesignDay
7,-20.0
8,-20.000010377544204
9,-20.00000247649434
10,0.0
11,0.0
12,211.55509629925345
13,21.909652849092634
2,1,12,21, 0,15,15.00,30.00,WinterDesignDay
7,-20.0
8,-20.000010377544204
9,-20.00000247649434
10,0.0
11,0.0
12,214.8039642720736
13,20.283916989320144
2,1,12,21, 0,15,30.00,45.00,WinterDesignDay
7,-20.0
8,-20.000010377544204
9,-20.00000247649434
10,0.0
11,0.0
12,217.93609191923716
13,18.522357099429776
2,1,12,21, 0,15,45.00,60.00,WinterDesignDay
7,-20.0
8,-20.000010377544204
9,-20.00000247649434
10,0.0
11,0.0
12,220.9524985123925
13,16.635086796872795
2,1,12,21, 0,16, 0.00,15.00,WinterDesignDay
7,-20.0
8,-20.000010377544204
9,-20.00000247649434
10,0.0
11,0.0
12,223.85594865287973
13,14.631913237340397
2,1,12,21, 0,16,15.00,30.00,WinterDesignDay
7,-20.0
8,-20.000010377544204
9,-20.00000247649434
10,0.0
11,0.0
12,226.65060555965553
13,12.522224770714534
2,1,12,21, 0,16,30.00,45.00,WinterDesignDay
7,-20.0
8,-20.000010377544204
9,-20.00000247649434
10,0.0
11,0.0
12,229.34171631316045
13,10.314916265060525
2,1,12,21, 0,16,45.00,60.00,WinterDesignDay
7,-20.0
8,-20.000010377544204
9,-20.00000247649434
10,0.0
11,0.0
12,231.93533994041238
13,8.018346136295989
2,1,12,21, 0,17, 0.00,15.00,WinterDesignDay
7,-20.0
8,-20.000010377544204
9,-20.00000247649434
10,0.0
11,0.0
12,234.43812294124112
13,5.640318911530055
2,1,12,21, 0,17,15.00,30.00,WinterDesignDay
7,-20.0
8,-20.000010377544204
9,-20.00000247649434
10,0.0
11,0.0
12,236.85712245756386
13,3.188087537784389
2,1,12,21, 0,17,30.00,45.00,WinterDesignDay
7,-20.0
8,-20.000010377544204
9,-20.00000247649434
10,0.0
11,0.0
12,239.19967458087325
13,0.6683703682067418
2,1,12,21, 0,17,45.00,60.00,WinterDesignDay
7,-20.0
8,-20.000010377544204
9,-20.00000247649434
10,0.0
11,0.0
12,241.47330394511923
13,-1.9126213769214975
2,1,12,21, 0,18, 0.00,15.00,WinterDesignDay
7,-20.0
8,-20.000010377544204
9,-20.00000247649434
10,0.0
11,0.0
12,243.6856704125015
13,-4.549148994678884
2,1,12,21, 0,18,15.00,30.00,WinterDesignDay
7,-20.0
8,-20.000010377544204
9,-20.00000247649434
10,0.0
11,0.0
12,245.84454902591878
13,-7.235907024031887
2,1,12,21, 0,18,30.00,45.00,WinterDesignDay
7,-20.0
8,-20.000010377544204
9,-20.00000247649434
10,0.0
11,0.0
12,247.9578402474924
13,-9.967981069485594
2,1,12,21, 0,18,45.00,60.00,WinterDesignDay
7,-20.0
8,-20.000010377544204
9,-20.00000247649434
10,0.0
11,0.0
12,250.03360868271437
13,-12.740803843795263
2,1,12,21, 0,19, 0.00,15.00,WinterDesignDay
7,-20.0
8,-20.000010377544204
9,-20.00000247649434
10,0.0
11,0.0
12,252.08014993631818
13,-15.550109994725688
2,1,12,21, 0,19,15.00,30.00,WinterDesignDay
7,-20.0
8,-20.000010377544204
9,-20.00000247649434
10,0.0
11,0.0
12,254.10608696162848
13,-18.391889786253444
2,1,12,21, 0,19,30.00,45.00,WinterDesignDay
7,-20.0
8,-20.000010377544204
9,-20.00000247649434
10,0.0
11,0.0
12,256.12049932100825
13,-21.262341237957997
2,1,12,21, 0,19,45.00,60.00,WinterDesignDay
7,-20.0
8,-20.000010377544204
9,-20.00000247649434
10,0.0
11,0.0
12,258.13309131589335
13,-24.15781984689077
2,1,12,21, 0,20, 0.00,15.00,WinterDesignDay
7,-20.0
8,-20.000010377544204
9,-20.00000247649434
10,0.0
11,0.0
12,260.1544082056583
13,-27.0747844721825
2,1,12,21, 0,20,15.00,30.00,WinterDesignDay
7,-20.0
8,-20.000010377544204
9,-20.00000247649434
10,0.0
11,0.0
12,262.1961140719295
13,-30.009737285186947
2,1,12,21, 0,20,30.00,45.00,WinterDesignDay
7,-20.0
8,-20.000010377544204
9,-20.00000247649434
10,0.0
11,0.0
12,264.27135083111233
13,-32.95915478033773
2,1,12,21, 0,20,45.00,60.00,WinterDesignDay
7,-20.0
8,-20.000010377544204
9,-20.00000247649434
10,0.0
11,0.0
12,266.3952062452566
13,-35.91940556160232
2,1,12,21, 0,21, 0.00,15.00,WinterDesignDay
7,-20.0
8,-20.000010377544204
9,-20.00000247649434
10,0.0
11,0.0
12,268.5853307121675
13,-38.88664874855997
2,1,12,21, 0,21,15.00,30.00,WinterDesignDay
7,-20.0
8,-20.000010377544204
9,-20.00000247649434
10,0.0
11,0.0
12,270.8627598912923
13,-41.85670404234112
2,1,12,21, 0,21,30.00,45.00,WinterDesignDay
7,-20.0
8,-20.000010377544204
9,-20.00000247649434
10,0.0
11,0.0
12,273.25302544084315
13,-44.82488020615525
2,1,12,21, 0,21,45.00,60.00,WinterDesignDay
7,-20.0
8,-20.000010377544204
9,-20.00000247649434
10,0.0
11,0.0
12,275.7876730327846
13,-47.785742055746816
2,1,12,21, 0,22, 0.00,15.00,WinterDesignDay
7,-20.0
8,-20.000010377544204
9,-20.00000247649434
10,0.0
11,0.0
12,278.50636038561737
13,-50.73278555991204
2,1,12,21, 0,22,15.00,30.00,WinterDesignDay
7,-20.0
8,-20.000010377544204
9,-20.00000247649434
10,0.0
11,0.0
12,281.4597839710744
13,-53.657973926828085
2,1,12,21, 0,22,30.00,45.00,WinterDesignDay
7,-20.0
8,-20.000010377544204
9,-20.00000247649434
10,0.0
11,0.0
12,284.7137842149532
13,-56.55106074652364
2,1,12,21, 0,22,45.00,60.00,WinterDesignDay
7,-20.0
8,-20.000010377544204
9,-20.00000247649434
10,0.0
11,0.0
12,288.3550935116272
13,-59.39858348491532
2,1,12,21, 0,23, 0.00,15.00,WinterDesignDay
7,-20.0
8,-20.000010377544204
9,-20.00000247649434
10,0.0
11,0.0
12,292.4992551658581
13,-62.182344080091205
2,1,12,21, 0,23,15.00,30.00,WinterDesignDay
7,-20.0
8,-20.000010377544204
9,-20.00000247649434
10,0.0
11,0.0
12,297.301031415589
13,-64.87709728681801
2,1,12,21, 0,23,30.00,45.00,WinterDesignDay
7,-20.0
8,-20.000010377544204
9,-20.00000247649434
10,0.0
11,0.0
12,302.9664707253064
13,-67.44705645446197
2,1,12,21, 0,23,45.00,60.00,WinterDesignDay
7,-20.0
8,-20.000010377544204
9,-20.00000247649434
10,0.0
11,0.0
12,309.7619746138441
13,-69.84080142542793
2,1,12,21, 0,24, 0.00,15.00,WinterDesignDay
7,-20.0
8,-20.000010377544204
9,-20.00000247649434
10,0.0
11,0.0
12,318.00547287039336
13,-71.98461056389965
2,1,12,21, 0,24,15.00,30.00,WinterDesignDay
7,-20.0
8,-20.000010377544204
9,-20.00000247649434
10,0.0
11,0.0
12,328.0040772254789
13,-73.77616470031556
2,1,12,21, 0,24,30.00,45.00,WinterDesignDay
7,-20.0
8,-20.000010377544204
9,-20.00000247649434
10,0.0
11,0.0
12,339.8834206109057
13,-75.08560454808719
2,1,12,21, 0,24,45.00,60.00,WinterDesignDay
7,-20.0
8,-20.000010377544204
9,-20.00000247649434
10,0.0
11,0.0
12,353.3098975756637
13,-75.7774959627945
1,DENVER_STAPLETON ANN CLG .4% CONDNS DB=>MWB,  37.62,-122.40,  -8.00,   2.00
2,1, 7,21, 0, 1, 0.00,15.00,SummerDesignDay
7,21.408
8,-0.021979067957820543
9,10.854770494572614
10,0.0
11,0.0
12,0.2286755804637875
13,-31.763630935208575
2,1, 7,21, 0, 1,15.00,30.00,SummerDesignDay
7,21.18
8,-0.022936643394797705
9,10.75611242238056
10,0.0
11,0.0
12,3.895985611160643
13,-31.668560981063642
2,1, 7,21, 0, 1,30.00,45.00,SummerDesignDay
7,20.952
8,-0.023892740364933357
9,10.657129546927889
10,0.0
11,0.0
12,7.99737925896564
13,-31.36074427093648
2,1, 7,21, 0, 1,45.00,60.00,SummerDesignDay
7,20.724000000000004
8,-0.02484687625596345
9,10.557818335390225
10,0.0
11,0.0
12,12.051907407027748
13,-30.843561967616523
2,1, 7,21, 0, 2, 0.00,15.00,SummerDesignDay
7,20.572000000000003
8,-0.025495231487657664
9,10.4914185558603
10,0.0
11,0.0
12,16.03801128881906
13,-30.122540136854138
2,1, 7,21, 0, 2,15.00,30.00,SummerDesignDay
7,20.42
8,-0.026123827912305095
9,10.424886258282726
10,0.0
11,0.0
12,19.936962390734653
13,-29.205072551820063
2,1, 7,21, 0, 2,30.00,45.00,SummerDesignDay
7,20.268
8,-0.02677050066653983
9,10.358193692899983
10,0.0
11,0.0
12,23.73339061954837
13,-28.100075178888833
2,1, 7,21, 0, 2,45.00,60.00,SummerDesignDay
7,20.116
8,-0.02739602284164571
9,10.291365846301826
10,0.0
11,0.0
12,27.41553437128504
13,-26.817607385198336
2,1, 7,21, 0, 3, 0.00,15.00,SummerDesignDay
7,20.002000000000002
8,-0.027870466876604723
9,10.241143497807125
10,0.0
11,0.0
12,30.975235609114605
13,-25.368492991217543
2,1, 7,21, 0, 3,15.00,30.00,SummerDesignDay
7,19.888
8,-0.028363354063727128
9,10.190826523793294
10,0.0
11,0.0
12,34.4077297129664
13,-23.763968073000086
2,1, 7,21, 0, 3,30.00,45.00,SummerDesignDay
7,19.774000000000004
8,-0.028837062436519796
9,10.140436408947032
10,0.0
11,0.0
12,37.711292420740826
13,-22.015374005021748
2,1, 7,21, 0, 3,45.00,60.00,SummerDesignDay
7,19.660000000000004
8,-0.029309885303586507
9,10.089964157756262
10,0.0
11,0.0
12,40.886806222124164
13,-20.13390562184666
2,1, 7,21, 0, 4, 0.00,15.00,SummerDesignDay
7,19.546000000000003
8,-0.029782411508761878
9,10.03940758127769
10,0.0
11,0.0
12,43.9372999651704
13,-18.130416989842587
2,1, 7,21, 0, 4,15.00,30.00,SummerDesignDay
7,19.432000000000002
8,-0.030254152564936458
9,9.988766641783627
10,0.0
11,0.0
12,46.86750254384647
13,-16.015281833938115
2,1, 7,21, 0, 4,30.00,45.00,SummerDesignDay
7,19.318000000000005
8,-0.030725808322452756
9,9.93804083920533
10,0.0
11,0.0
12,49.68343793918821
13,-13.798302270398638
2,1, 7,21, 0, 4,45.00,60.00,SummerDesignDay
7,19.204
8,-0.0311965770368621
9,9.887230088216144
10,0.0
11,0.0
12,52.39207690309106
13,-11.488657877890942
2,1, 7,21, 0, 5, 0.00,15.00,SummerDesignDay
7,19.128
8,-0.03151697219630591
9,9.853306268178107
10,0.0
11,0.0
12,55.00105129155575
13,-9.094886845944359
2,1, 7,21, 0, 5,15.00,30.00,SummerDesignDay
7,19.052
8,-0.03183700164006803
9,9.819342285207393
10,0.0
11,0.0
12,57.51843066072798
13,-6.624891507478524
2,1, 7,21, 0, 5,30.00,45.00,SummerDesignDay
7,18.976000000000003
8,-0.03213719683733385
9,9.78535547658765
10,0.0
11,0.0
12,59.952556896548906
13,-4.085961598598799
2,1, 7,21, 0, 5,45.00,60.00,SummerDesignDay
7,18.900000000000002
8,-0.032456167098532385
9,9.751315570383362
10,0.0
11,0.0
12,62.31193080190145
13,-1.48480980762052
2,1, 7,21, 0, 6, 0.00,15.00,SummerDesignDay
7,18.976000000000003
8,-0.03213719683733385
9,9.78535547658765
10,0.005647919666576601
11,0.04137622671597103
12,64.60514414104883
13,1.172384608422784
2,1, 7,21, 0, 6,15.00,30.00,SummerDesignDay
7,19.052
8,-0.03183700164006803
9,9.819342285207393
10,6.827975537670544
11,50.02122560801278
12,66.84085115414695
13,3.8799272496808634
2,1, 7,21, 0, 6,30.00,45.00,SummerDesignDay
7,19.128
8,-0.03151697219630591
9,9.853306268178107
10,24.412886672227565
11,178.84693716857683
12,69.02777464354621
13,6.6325571868067525
2,1, 7,21, 0, 6,45.00,60.00,SummerDesignDay
7,19.204
8,-0.0311965770368621
9,9.887230088216144
10,41.522632226590275
11,304.1916220973186
12,71.17474316177531
13,9.425394092486549
2,1, 7,21, 0, 7, 0.00,15.00,SummerDesignDay
7,19.470000000000002
8,-0.030103832108314677
9,10.005651521014103
10,55.51129914712343
11,406.67152410148674
12,73.29075746960217
13,12.253884538800838
2,1, 7,21, 0, 7,15.00,30.00,SummerDesignDay
7,19.736
8,-0.028988546706385447
9,10.123626740799239
10,66.6191231304047
11,488.0465914865946
12,75.38508624054943
13,15.113747523098802
2,1, 7,21, 0, 7,30.00,45.00,SummerDesignDay
7,20.002000000000002
8,-0.027870466876604723
9,10.241143497807125
10,75.47195315229574
11,552.9017458952873
12,77.46739299729688
13,18.000918757786952
2,1, 7,21, 0, 7,45.00,60.00,SummerDesignDay
7,20.268
8,-0.02677050066653983
9,10.358193692899983
10,82.61121771844606
11,605.2034510739985
12,79.54789857133282
13,20.911492743159886
2,1, 7,21, 0, 8, 0.00,15.00,SummerDesignDay
7,20.914
8,-0.024064791762991256
9,10.640591685310923
10,88.44403821194236
11,647.9342470803002
12,81.63758614065445
13,23.841661082855257
2,1, 7,21, 0, 8,15.00,30.00,SummerDesignDay
7,21.560000000000002
8,-0.021325501178246963
9,10.920369468480754
10,93.26781539146138
11,683.272869084477
12,83.7484593569201
13,26.78764483223259
2,1, 7,21, 0, 8,30.00,45.00,SummerDesignDay
7,22.206000000000003
8,-0.018593838515928673
9,11.197535268568641
10,97.30006654469494
11,712.8128320693
12,85.89386855422329
13,29.74561780423487
2,1, 7,21, 0, 8,45.00,60.00,SummerDesignDay
7,22.852000000000004
8,-0.015847600497864857
9,11.472138529438665
10,100.70163965107176
11,737.7324960073862
12,88.08892599334807
13,32.71161657534828
2,1, 7,21, 0, 9, 0.00,15.00,SummerDesignDay
7,23.574000000000005
8,-0.012756746579540538
9,11.776057991747534
10,103.59314298125983
11,758.9154278482645
12,90.35103915826582
13,35.68143126369062
2,1, 7,21, 0, 9,15.00,30.00,SummerDesignDay
7,24.296
8,-0.009650422757352794
9,12.07686472184798
10,106.066306232273
11,777.03363232364
12,92.7006021036629
13,38.65046873690448
2,1, 7,21, 0, 9,30.00,45.00,SummerDesignDay
7,25.018
8,-0.0065290310513957265
9,12.374605927125794
10,108.1918392099803
11,792.6051240533012
12,95.16189976531578
13,41.61357636639999
2,1, 7,21, 0, 9,45.00,60.00,SummerDesignDay
7,25.740000000000002
8,-0.003391714024866721
9,12.669327207719936
10,110.0249184196502
11,806.0341218870483
12,97.76430006078357
13,44.564809199735144
2,1, 7,21, 0,10, 0.00,15.00,SummerDesignDay
7,26.386000000000003
8,0.0
9,12.930497467114062
10,111.60906630382095
11,817.6394679040898
12,100.54383415454
13,47.49711561443778
2,1, 7,21, 0,10,15.00,30.00,SummerDesignDay
7,27.032000000000004
8,0.0022687059532472483
9,13.18933184017491
10,112.97893150534304
11,827.6749954070601
12,103.5452951624815
13,50.40190490133064
2,1, 7,21, 0,10,30.00,45.00,SummerDesignDay
7,27.678
8,0.0051056187671993675
9,13.445836968776982
10,114.16230822911223
11,836.3443226113468
12,106.82501280013942
13,53.26844313677423
2,1, 7,21, 0,10,45.00,60.00,SummerDesignDay
7,28.324
8,0.007961342253437606
9,13.700053760935651
10,115.18162131781114
11,843.8117321961801
12,110.45446371405751
13,56.08299931003741
2,1, 7,21, 0,11, 0.00,15.00,SummerDesignDay
7,28.894000000000002
8,0.01055468041285305
9,13.922497987617186
10,116.0550306494971
11,850.2102620367414
12,114.52479423311003
13,58.827631264004715
2,1, 7,21, 0,11,15.00,30.00,SummerDesignDay
7,29.464000000000002
8,0.01341699624824034
9,14.143196674093069
10,116.79726025751323
11,855.6477792731005
12,119.15201551764842
13,61.47846531212553
2,1, 7,21, 0,11,30.00,45.00,SummerDesignDay
7,30.034000000000002
8,0.01630993588244674
9,14.362191346111572
10,117.42022537233474
11,860.2115739707364
12,124.48174410130041
13,64.00330694638293
2,1, 7,21, 0,11,45.00,60.00,SummerDesignDay
7,30.604000000000003
8,0.01918951170413376
9,14.5794803490077
10,117.93350878615134
11,863.9718489309672
12,130.69023360909105
13,66.35849417490195
2,1, 7,21, 0,12, 0.00,15.00,SummerDesignDay
7,30.984
8,0.02113003203749058
9,14.723417238691232
10,118.34472296644702
11,866.9843725072895
12,137.9740826727843
13,68.48525263157404
2,1, 7,21, 0,12,15.00,30.00,SummerDesignDay
7,31.364
8,0.02307300895524774
9,14.86661478499068
10,118.6597838923114
11,869.2924847092124
12,146.5142329557226
13,70.30679561162384
2,1, 7,21, 0,12,30.00,45.00,SummerDesignDay
7,31.744
8,0.024997395482169765
9,15.009068746431343
10,118.88311515764497
11,870.9285924467024
12,156.39611240504107
13,71.7294079358967
2,1, 7,21, 0,12,45.00,60.00,SummerDesignDay
7,32.124
8,0.02694851783638546
9,15.15080970539794
10,119.01779548797859
11,871.9152502270961
12,167.4867477417068
13,72.6530122103983
2,1, 7,21, 0,13, 0.00,15.00,SummerDesignDay
7,32.428000000000004
8,0.02848548857517026
9,15.263669336263796
10,119.065658784743
11,872.2658930717555
12,179.33517685270743
13,72.99508612236725
2,1, 7,21, 0,13,15.00,30.00,SummerDesignDay
7,32.732
8,0.030069025018985833
9,15.376093196028137
10,119.02735268084422
11,871.9852654897275
12,191.22652178088205
13,72.72070233134004
2,1, 7,21, 0,13,30.00,45.00,SummerDesignDay
7,33.036
8,0.03160979986832453
9,15.488039962975913
10,118.90235903260614
11,871.0695716001417
12,202.42940384711852
13,71.85807984318197
2,1, 7,21, 0,13,45.00,60.00,SummerDesignDay
7,33.34
8,0.03319878940331173
9,15.599556872929663
10,118.6889775328506
11,869.5063550828944
12,212.45700427073047
13,70.48588874762048
2,1, 7,21, 0,14, 0.00,15.00,SummerDesignDay
7,33.53
8,0.03418039107227346
9,15.669020905110786
10,118.38427149826309
11,867.274102021041
12,221.14441726751474
13,68.7036733873794
2,1, 7,21, 0,14,15.00,30.00,SummerDesignDay
7,33.72
8,0.03511895191738461
9,15.738287074713133
10,117.98397266578716
11,864.341543446478
12,228.55940288754476
13,66.60660545134617
2,1, 7,21, 0,14,30.00,45.00,SummerDesignDay
7,33.910000000000004
8,0.03610434082800029
9,15.80740149795668
10,117.48233932067437
11,860.6666159969063
12,234.87719281952081
13,64.27352012726845
2,1, 7,21, 0,14,45.00,60.00,SummerDesignDay
7,34.1
8,0.03708817590154621
9,15.876342433183456
10,116.8719590266442
11,856.1950167320992
12,240.29507429710623
13,61.76507998510607
2,1, 7,21, 0,15, 0.00,15.00,SummerDesignDay
7,34.1
8,0.03708817590154621
9,15.876342433183456
10,116.14348331558631
11,850.8582594909894
12,244.99237957896042
13,59.12643932838574
2,1, 7,21, 0,15,15.00,30.00,SummerDesignDay
7,34.1
8,0.03708817590154621
9,15.876342433183456
10,115.28527647627523
11,844.5711019447037
12,249.11818836866286
13,56.39089471501089
2,1, 7,21, 0,15,30.00,45.00,SummerDesignDay
7,34.1
8,0.03708817590154621
9,15.876342433183456
10,114.28295341875524
11,837.2281600264577
12,252.79158675630867
13,53.583110364535344
2,1, 7,21, 0,15,45.00,60.00,SummerDesignDay
7,34.1
8,0.03708817590154621
9,15.876342433183456
10,113.1187715359573
11,828.6994527563573
12,256.1062136220995
13,50.72159001499546
2,1, 7,21, 0,16, 0.00,15.00,SummerDesignDay
7,33.872
8,0.03591554554891385
9,15.79359659419615
10,111.77082710603915
11,818.8245151465189
12,259.1354858232405
13,47.82046357054543
2,1, 7,21, 0,16,15.00,30.00,SummerDesignDay
7,33.644
8,0.03474509081539958
9,15.710600647096353
10,110.21198588390692
11,807.4045637964958
12,261.93721679459117
13,44.890749452579804
2,1, 7,21, 0,16,30.00,45.00,SummerDesignDay
7,33.416000000000004
8,0.033573982815355674
9,15.62735349319182
10,108.40844671276776
11,794.1919740215741
12,264.5573271574223
13,41.94124227808605
2,1, 7,21, 0,16,45.00,60.00,SummerDesignDay
7,33.188
8,0.03240362156654454
9,15.54385498539016
10,106.3177909150253
11,778.8759898399359
12,267.03270453253305
13,38.97914028820993
2,1, 7,21, 0,17, 0.00,15.00,SummerDesignDay
7,32.884
8,0.030816935923830353
9,15.432111858959141
10,103.88630052897445
11,761.0630775801682
12,269.39336899006173
13,36.01049377066052
2,1, 7,21, 0,17,15.00,30.00,SummerDesignDay
7,32.58
8,0.029277051142052556
9,15.319939145880637
10,101.04522212691224
11,740.2495548990238
12,271.6641037717204
13,33.040530428587786
2,1, 7,21, 0,17,30.00,45.00,SummerDesignDay
7,32.276
8,0.02769474195500873
9,15.207286410073866
10,97.70549040596367
11,715.7829362121033
12,273.8656849327059
13,30.07389583751508
2,1, 7,21, 0,17,45.00,60.00,SummerDesignDay
7,31.972
8,0.026159190324724597
9,15.094196221726495
10,93.75018034551687
11,686.8066377775675
12,276.0158134332017
13,27.114834999485172
2,1, 7,21, 0,18, 0.00,15.00,SummerDesignDay
7,31.592000000000002
8,0.024231238506139275
9,14.952177581380584
10,89.02360341995869
11,652.1800973861187
12,278.12982705853034
13,24.167332842412428
2,1, 7,21, 0,18,15.00,30.00,SummerDesignDay
7,31.212000000000003
8,0.022286814834581926
9,14.809418742921483
10,83.31552795728561
11,610.3631739172712
12,280.2212490215463
13,21.23522603236006
2,1, 7,21, 0,18,30.00,45.00,SummerDesignDay
7,30.832
8,0.020344685206871767
9,14.665926047216926
10,76.33877941710811
11,559.2520486923479
12,282.3022146846827
13,18.322294769315313
2,1, 7,21, 0,18,45.00,60.00,SummerDesignDay
7,30.452
8,0.01842849464211106
9,14.521704698841848
10,67.69993536347445
11,495.9645390908308
12,284.3838064743759
13,15.432340719594734
2,1, 7,21, 0,19, 0.00,15.00,SummerDesignDay
7,29.882
8,0.015528773697315803
9,14.303954397857389
10,56.872584068795206
11,416.6441931317219
12,286.47631871838274
13,12.569255499469673
2,1, 7,21, 0,19,15.00,30.00,SummerDesignDay
7,29.312
8,0.012660255754057607
9,14.084516672006059
10,43.2308258018111
11,316.7057173422218
12,288.58946797594416
13,9.73708289822017
2,1, 7,21, 0,19,30.00,45.00,SummerDesignDay
7,28.742
8,0.009804983027987572
9,13.86334545686828
10,26.432768914633446
11,193.64443970671178
12,290.73255981104825
13,6.940077134712992
2,1, 7,21, 0,19,45.00,60.00,SummerDesignDay
7,28.172
8,0.007291065373143759
9,13.640447670956009
10,8.52838633728791
11,62.478304835185895
12,292.9146194072809
13,4.182758755294974
2,1, 7,21, 0,20, 0.00,15.00,SummerDesignDay
7,27.754
8,0.005445777710070921
9,13.475866075671734
10,0.04428206748181811
11,0.32440703334050947
12,295.1444905956524
13,1.4699692126492223
2,1, 7,21, 0,20,15.00,30.00,SummerDesignDay
7,27.336000000000002
8,0.003605861481957107
9,13.310329430010995
10,0.0
11,0.0
12,297.43090551932846
13,-1.1930753529610507
2,1, 7,21, 0,20,30.00,45.00,SummerDesignDay
7,26.918
8,0.0
9,13.14382695431685
10,0.0
11,0.0
12,299.7825251231101
13,-3.8007311322835604